! Touchstone simulation data from EMX version 6.0
! Sat Sep 10 00:21:44 2022
# Hz S RI R 50
0.000000e+00 7.626840e-03 -0.000000e+00 9.923732e-01 -0.000000e+00 9.923732e-01 -0.000000e+00 7.626840e-03 -0.000000e+00
1.000000e+08 7.625992e-03 3.837615e-04 9.923681e-01 -9.939822e-04 9.923681e-01 -9.939822e-04 7.625984e-03 3.815926e-04
2.000000e+08 7.623781e-03 7.679724e-04 9.923525e-01 -1.987387e-03 9.923525e-01 -1.987387e-03 7.623648e-03 7.635886e-04
3.000000e+08 7.620310e-03 1.152453e-03 9.923265e-01 -2.979641e-03 9.923265e-01 -2.979641e-03 7.619946e-03 1.145830e-03
4.000000e+08 7.615622e-03 1.537079e-03 9.922901e-01 -3.970159e-03 9.922901e-01 -3.970159e-03 7.614908e-03 1.528173e-03
5.000000e+08 7.609711e-03 1.921751e-03 9.922435e-01 -4.958351e-03 9.922435e-01 -4.958351e-03 7.608502e-03 1.910515e-03
6.000000e+08 7.602544e-03 2.306420e-03 9.921870e-01 -5.943648e-03 9.921870e-01 -5.943648e-03 7.600662e-03 2.292813e-03
7.000000e+08 7.594076e-03 2.691078e-03 9.921209e-01 -6.925503e-03 9.921209e-01 -6.925503e-03 7.591318e-03 2.675084e-03
8.000000e+08 7.584259e-03 3.075764e-03 9.920455e-01 -7.903391e-03 9.920455e-01 -7.903391e-03 7.580405e-03 3.057396e-03
9.000000e+08 7.573047e-03 3.460554e-03 9.919612e-01 -8.876812e-03 9.919612e-01 -8.876812e-03 7.567868e-03 3.439863e-03
1.000000e+09 7.560393e-03 3.845550e-03 9.918686e-01 -9.845312e-03 9.918686e-01 -9.845312e-03 7.553665e-03 3.822623e-03
1.100000e+09 7.546235e-03 4.230843e-03 9.917681e-01 -1.080852e-02 9.917681e-01 -1.080852e-02 7.537747e-03 4.205802e-03
1.200000e+09 7.530514e-03 4.616538e-03 9.916602e-01 -1.176612e-02 9.916602e-01 -1.176612e-02 7.520075e-03 4.589536e-03
1.300000e+09 7.513175e-03 5.002756e-03 9.915452e-01 -1.271786e-02 9.915452e-01 -1.271786e-02 7.500621e-03 4.973969e-03
1.400000e+09 7.494176e-03 5.389638e-03 9.914238e-01 -1.366352e-02 9.914238e-01 -1.366352e-02 7.479374e-03 5.359259e-03
1.500000e+09 7.473488e-03 5.777335e-03 9.912964e-01 -1.460296e-02 9.912964e-01 -1.460296e-02 7.456337e-03 5.745566e-03
1.600000e+09 7.451102e-03 6.166010e-03 9.911634e-01 -1.553604e-02 9.911634e-01 -1.553604e-02 7.431534e-03 6.133055e-03
1.700000e+09 7.427027e-03 6.555830e-03 9.910253e-01 -1.646269e-02 9.910253e-01 -1.646269e-02 7.405003e-03 6.521889e-03
1.800000e+09 7.401292e-03 6.946965e-03 9.908825e-01 -1.738288e-02 9.908825e-01 -1.738288e-02 7.376802e-03 6.912230e-03
1.900000e+09 7.373947e-03 7.339584e-03 9.907355e-01 -1.829658e-02 9.907355e-01 -1.829658e-02 7.347003e-03 7.304232e-03
2.000000e+09 7.345060e-03 7.733848e-03 9.905845e-01 -1.920382e-02 9.905845e-01 -1.920382e-02 7.315696e-03 7.698042e-03
2.100000e+09 7.314718e-03 8.129914e-03 9.904301e-01 -2.010462e-02 9.904301e-01 -2.010462e-02 7.282981e-03 8.093795e-03
2.200000e+09 7.283022e-03 8.527923e-03 9.902724e-01 -2.099906e-02 9.902724e-01 -2.099906e-02 7.248973e-03 8.491616e-03
2.300000e+09 7.250090e-03 8.928008e-03 9.901120e-01 -2.188721e-02 9.901120e-01 -2.188721e-02 7.213794e-03 8.891618e-03
2.400000e+09 7.216047e-03 9.330284e-03 9.899489e-01 -2.276914e-02 9.899489e-01 -2.276914e-02 7.177576e-03 9.293897e-03
2.500000e+09 7.181031e-03 9.734854e-03 9.897836e-01 -2.364497e-02 9.897836e-01 -2.364497e-02 7.140456e-03 9.698539e-03
2.600000e+09 7.145184e-03 1.014180e-02 9.896164e-01 -2.451480e-02 9.896164e-01 -2.451480e-02 7.102575e-03 1.010561e-02
2.700000e+09 7.108653e-03 1.055120e-02 9.894473e-01 -2.537875e-02 9.894473e-01 -2.537875e-02 7.064078e-03 1.051517e-02
2.800000e+09 7.071589e-03 1.096310e-02 9.892768e-01 -2.623694e-02 9.892768e-01 -2.623694e-02 7.025108e-03 1.092727e-02
2.900000e+09 7.034142e-03 1.137755e-02 9.891049e-01 -2.708950e-02 9.891049e-01 -2.708950e-02 6.985812e-03 1.134192e-02
3.000000e+09 6.996463e-03 1.179456e-02 9.889319e-01 -2.793656e-02 9.889319e-01 -2.793656e-02 6.946331e-03 1.175914e-02
3.100000e+09 6.958699e-03 1.221416e-02 9.887580e-01 -2.877826e-02 9.887580e-01 -2.877826e-02 6.906805e-03 1.217894e-02
3.200000e+09 6.920993e-03 1.263633e-02 9.885834e-01 -2.961472e-02 9.885834e-01 -2.961472e-02 6.867371e-03 1.260132e-02
3.300000e+09 6.883486e-03 1.306107e-02 9.884082e-01 -3.044609e-02 9.884082e-01 -3.044609e-02 6.828160e-03 1.302625e-02
3.400000e+09 6.846312e-03 1.348835e-02 9.882325e-01 -3.127251e-02 9.882325e-01 -3.127251e-02 6.789300e-03 1.345371e-02
3.500000e+09 6.809599e-03 1.391815e-02 9.880565e-01 -3.209412e-02 9.880565e-01 -3.209412e-02 6.750912e-03 1.388367e-02
3.600000e+09 6.773469e-03 1.435040e-02 9.878804e-01 -3.291104e-02 9.878804e-01 -3.291104e-02 6.713111e-03 1.431607e-02
3.700000e+09 6.738038e-03 1.478508e-02 9.877041e-01 -3.372344e-02 9.877041e-01 -3.372344e-02 6.676007e-03 1.475088e-02
3.800000e+09 6.703413e-03 1.522212e-02 9.875279e-01 -3.453143e-02 9.875279e-01 -3.453143e-02 6.639702e-03 1.518804e-02
3.900000e+09 6.669696e-03 1.566146e-02 9.873519e-01 -3.533516e-02 9.873519e-01 -3.533516e-02 6.604294e-03 1.562748e-02
4.000000e+09 6.636981e-03 1.610303e-02 9.871761e-01 -3.613477e-02 9.871761e-01 -3.613477e-02 6.569871e-03 1.606915e-02
4.100000e+09 6.605356e-03 1.654676e-02 9.870006e-01 -3.693039e-02 9.870006e-01 -3.693039e-02 6.536518e-03 1.651296e-02
4.200000e+09 6.574899e-03 1.699257e-02 9.868256e-01 -3.772215e-02 9.868256e-01 -3.772215e-02 6.504312e-03 1.695886e-02
4.300000e+09 6.545685e-03 1.744040e-02 9.866509e-01 -3.851019e-02 9.866509e-01 -3.851019e-02 6.473324e-03 1.740676e-02
4.400000e+09 6.517781e-03 1.789015e-02 9.864769e-01 -3.929464e-02 9.864769e-01 -3.929464e-02 6.443620e-03 1.785659e-02
4.500000e+09 6.491248e-03 1.834175e-02 9.863034e-01 -4.007563e-02 9.863034e-01 -4.007563e-02 6.415259e-03 1.830826e-02
4.600000e+09 6.466140e-03 1.879512e-02 9.861305e-01 -4.085329e-02 9.861305e-01 -4.085329e-02 6.388294e-03 1.876171e-02
4.700000e+09 6.442506e-03 1.925016e-02 9.859583e-01 -4.162774e-02 9.859583e-01 -4.162774e-02 6.362775e-03 1.921684e-02
4.800000e+09 6.420391e-03 1.970681e-02 9.857869e-01 -4.239911e-02 9.857869e-01 -4.239911e-02 6.338745e-03 1.967357e-02
4.900000e+09 6.399832e-03 2.016496e-02 9.856162e-01 -4.316751e-02 9.856162e-01 -4.316751e-02 6.316243e-03 2.013183e-02
5.000000e+09 6.380864e-03 2.062455e-02 9.854464e-01 -4.393308e-02 9.854464e-01 -4.393308e-02 6.295302e-03 2.059153e-02
5.100000e+09 6.363517e-03 2.108548e-02 9.852773e-01 -4.469593e-02 9.852773e-01 -4.469593e-02 6.275953e-03 2.105259e-02
5.200000e+09 6.347816e-03 2.154768e-02 9.851091e-01 -4.545617e-02 9.851091e-01 -4.545617e-02 6.258222e-03 2.151493e-02
5.300000e+09 6.333781e-03 2.201106e-02 9.849418e-01 -4.621393e-02 9.849418e-01 -4.621393e-02 6.242130e-03 2.197847e-02
5.400000e+09 6.321432e-03 2.247554e-02 9.847754e-01 -4.696931e-02 9.847754e-01 -4.696931e-02 6.227698e-03 2.244312e-02
5.500000e+09 6.310783e-03 2.294104e-02 9.846099e-01 -4.772242e-02 9.846099e-01 -4.772242e-02 6.214939e-03 2.290882e-02
5.600000e+09 6.301846e-03 2.340749e-02 9.844453e-01 -4.847338e-02 9.844453e-01 -4.847338e-02 6.203867e-03 2.337547e-02
5.700000e+09 6.294629e-03 2.387480e-02 9.842817e-01 -4.922228e-02 9.842817e-01 -4.922228e-02 6.194492e-03 2.384301e-02
5.800000e+09 6.289140e-03 2.434290e-02 9.841189e-01 -4.996924e-02 9.841189e-01 -4.996924e-02 6.186820e-03 2.431136e-02
5.900000e+09 6.285382e-03 2.481172e-02 9.839572e-01 -5.071436e-02 9.839572e-01 -5.071436e-02 6.180857e-03 2.478044e-02
6.000000e+09 6.283358e-03 2.528118e-02 9.837963e-01 -5.145773e-02 9.837963e-01 -5.145773e-02 6.176606e-03 2.525018e-02
6.100000e+09 6.283068e-03 2.575121e-02 9.836364e-01 -5.219947e-02 9.836364e-01 -5.219947e-02 6.174067e-03 2.572051e-02
6.200000e+09 6.284510e-03 2.622173e-02 9.834775e-01 -5.293965e-02 9.834775e-01 -5.293965e-02 6.173239e-03 2.619136e-02
6.300000e+09 6.287683e-03 2.669269e-02 9.833195e-01 -5.367839e-02 9.833195e-01 -5.367839e-02 6.174122e-03 2.666266e-02
6.400000e+09 6.292581e-03 2.716401e-02 9.831624e-01 -5.441577e-02 9.831624e-01 -5.441577e-02 6.176709e-03 2.713433e-02
6.500000e+09 6.299198e-03 2.763564e-02 9.830062e-01 -5.515186e-02 9.830062e-01 -5.515186e-02 6.180996e-03 2.760634e-02
6.600000e+09 6.307522e-03 2.810755e-02 9.828509e-01 -5.588673e-02 9.828509e-01 -5.588673e-02 6.186971e-03 2.807865e-02
6.700000e+09 6.317545e-03 2.857972e-02 9.826966e-01 -5.662041e-02 9.826966e-01 -5.662041e-02 6.194626e-03 2.855123e-02
6.800000e+09 6.329254e-03 2.905212e-02 9.825431e-01 -5.735296e-02 9.825431e-01 -5.735296e-02 6.203949e-03 2.902405e-02
6.900000e+09 6.342638e-03 2.952472e-02 9.823905e-01 -5.808444e-02 9.823905e-01 -5.808444e-02 6.214929e-03 2.949709e-02
7.000000e+09 6.357684e-03 2.999751e-02 9.822387e-01 -5.881488e-02 9.822387e-01 -5.881488e-02 6.227555e-03 2.997033e-02
7.100000e+09 6.374381e-03 3.047044e-02 9.820878e-01 -5.954432e-02 9.820878e-01 -5.954432e-02 6.241814e-03 3.044374e-02
7.200000e+09 6.392716e-03 3.094352e-02 9.819377e-01 -6.027282e-02 9.819377e-01 -6.027282e-02 6.257695e-03 3.091730e-02
7.300000e+09 6.412677e-03 3.141671e-02 9.817884e-01 -6.100041e-02 9.817884e-01 -6.100041e-02 6.275185e-03 3.139099e-02
7.400000e+09 6.434249e-03 3.189000e-02 9.816399e-01 -6.172712e-02 9.816399e-01 -6.172712e-02 6.294271e-03 3.186479e-02
7.500000e+09 6.457421e-03 3.236337e-02 9.814921e-01 -6.245300e-02 9.814921e-01 -6.245300e-02 6.314939e-03 3.233868e-02
7.600000e+09 6.482179e-03 3.283681e-02 9.813451e-01 -6.317808e-02 9.813451e-01 -6.317808e-02 6.337177e-03 3.281265e-02
7.700000e+09 6.508508e-03 3.331029e-02 9.811989e-01 -6.390240e-02 9.811989e-01 -6.390240e-02 6.360972e-03 3.328669e-02
7.800000e+09 6.536397e-03 3.378381e-02 9.810533e-01 -6.462598e-02 9.810533e-01 -6.462598e-02 6.386310e-03 3.376076e-02
7.900000e+09 6.565831e-03 3.425736e-02 9.809085e-01 -6.534885e-02 9.809085e-01 -6.534885e-02 6.413176e-03 3.423487e-02
8.000000e+09 6.596796e-03 3.473091e-02 9.807643e-01 -6.607105e-02 9.807643e-01 -6.607105e-02 6.441559e-03 3.470900e-02
8.100000e+09 6.629279e-03 3.520445e-02 9.806208e-01 -6.679261e-02 9.806208e-01 -6.679261e-02 6.471443e-03 3.518314e-02
8.200000e+09 6.663266e-03 3.567798e-02 9.804779e-01 -6.751355e-02 9.804779e-01 -6.751355e-02 6.502814e-03 3.565727e-02
8.300000e+09 6.698743e-03 3.615149e-02 9.803356e-01 -6.823389e-02 9.803356e-01 -6.823389e-02 6.535660e-03 3.613138e-02
8.400000e+09 6.735696e-03 3.662496e-02 9.801939e-01 -6.895366e-02 9.801939e-01 -6.895366e-02 6.569965e-03 3.660547e-02
8.500000e+09 6.774111e-03 3.709839e-02 9.800528e-01 -6.967289e-02 9.800528e-01 -6.967289e-02 6.605716e-03 3.707952e-02
8.600000e+09 6.813974e-03 3.757177e-02 9.799122e-01 -7.039159e-02 9.799122e-01 -7.039159e-02 6.642899e-03 3.755353e-02
8.700000e+09 6.855271e-03 3.804508e-02 9.797722e-01 -7.110979e-02 9.797722e-01 -7.110979e-02 6.681499e-03 3.802748e-02
8.800000e+09 6.897988e-03 3.851832e-02 9.796326e-01 -7.182750e-02 9.796326e-01 -7.182750e-02 6.721502e-03 3.850137e-02
8.900000e+09 6.942111e-03 3.899149e-02 9.794936e-01 -7.254475e-02 9.794936e-01 -7.254475e-02 6.762894e-03 3.897520e-02
9.000000e+09 6.987624e-03 3.946457e-02 9.793550e-01 -7.326156e-02 9.793550e-01 -7.326156e-02 6.805660e-03 3.944894e-02
9.100000e+09 7.034515e-03 3.993756e-02 9.792169e-01 -7.397794e-02 9.792169e-01 -7.397794e-02 6.849786e-03 3.992261e-02
9.200000e+09 7.082768e-03 4.041046e-02 9.790791e-01 -7.469390e-02 9.790791e-01 -7.469390e-02 6.895258e-03 4.039618e-02
9.300000e+09 7.132370e-03 4.088325e-02 9.789418e-01 -7.540947e-02 9.789418e-01 -7.540947e-02 6.942060e-03 4.086966e-02
9.400000e+09 7.183305e-03 4.135593e-02 9.788049e-01 -7.612467e-02 9.788049e-01 -7.612467e-02 6.990179e-03 4.134304e-02
9.500000e+09 7.235559e-03 4.182850e-02 9.786683e-01 -7.683949e-02 9.786683e-01 -7.683949e-02 7.039600e-03 4.181631e-02
9.600000e+09 7.289117e-03 4.230095e-02 9.785320e-01 -7.755396e-02 9.785320e-01 -7.755396e-02 7.090308e-03 4.228946e-02
9.700000e+09 7.343965e-03 4.277327e-02 9.783961e-01 -7.826810e-02 9.783961e-01 -7.826810e-02 7.142288e-03 4.276250e-02
9.800000e+09 7.400088e-03 4.324547e-02 9.782604e-01 -7.898190e-02 9.782604e-01 -7.898190e-02 7.195525e-03 4.323542e-02
9.900000e+09 7.457471e-03 4.371753e-02 9.781250e-01 -7.969540e-02 9.781250e-01 -7.969540e-02 7.250004e-03 4.370821e-02
1.000000e+10 7.516098e-03 4.418945e-02 9.779899e-01 -8.040859e-02 9.779899e-01 -8.040859e-02 7.305711e-03 4.418087e-02
1.010000e+10 7.575955e-03 4.466122e-02 9.778550e-01 -8.112148e-02 9.778550e-01 -8.112148e-02 7.362630e-03 4.465340e-02
1.020000e+10 7.637025e-03 4.513285e-02 9.777202e-01 -8.183410e-02 9.777202e-01 -8.183410e-02 7.420745e-03 4.512578e-02
1.030000e+10 7.699295e-03 4.560433e-02 9.775857e-01 -8.254644e-02 9.775857e-01 -8.254644e-02 7.480042e-03 4.559803e-02
1.040000e+10 7.762748e-03 4.607565e-02 9.774513e-01 -8.325852e-02 9.774513e-01 -8.325852e-02 7.540505e-03 4.607012e-02
1.050000e+10 7.827368e-03 4.654681e-02 9.773170e-01 -8.397035e-02 9.773170e-01 -8.397035e-02 7.602118e-03 4.654206e-02
1.060000e+10 7.893140e-03 4.701781e-02 9.771828e-01 -8.468193e-02 9.771828e-01 -8.468193e-02 7.664865e-03 4.701385e-02
1.070000e+10 7.960048e-03 4.748864e-02 9.770488e-01 -8.539327e-02 9.770488e-01 -8.539327e-02 7.728731e-03 4.748548e-02
1.080000e+10 8.028075e-03 4.795929e-02 9.769147e-01 -8.610439e-02 9.769147e-01 -8.610439e-02 7.793700e-03 4.795695e-02
1.090000e+10 8.097206e-03 4.842978e-02 9.767808e-01 -8.681528e-02 9.767808e-01 -8.681528e-02 7.859755e-03 4.842825e-02
1.100000e+10 8.167424e-03 4.890008e-02 9.766468e-01 -8.752596e-02 9.766468e-01 -8.752596e-02 7.926881e-03 4.889938e-02
1.110000e+10 8.238712e-03 4.937020e-02 9.765128e-01 -8.823643e-02 9.765128e-01 -8.823643e-02 7.995060e-03 4.937033e-02
1.120000e+10 8.311053e-03 4.984013e-02 9.763789e-01 -8.894670e-02 9.763789e-01 -8.894670e-02 8.064277e-03 4.984111e-02
1.130000e+10 8.384431e-03 5.030987e-02 9.762448e-01 -8.965677e-02 9.762448e-01 -8.965677e-02 8.134513e-03 5.031171e-02
1.140000e+10 8.458829e-03 5.077942e-02 9.761107e-01 -9.036666e-02 9.761107e-01 -9.036666e-02 8.205753e-03 5.078213e-02
1.150000e+10 8.534228e-03 5.124877e-02 9.759765e-01 -9.107636e-02 9.759765e-01 -9.107636e-02 8.277980e-03 5.125236e-02
1.160000e+10 8.610612e-03 5.171792e-02 9.758421e-01 -9.178589e-02 9.758421e-01 -9.178589e-02 8.351175e-03 5.172240e-02
1.170000e+10 8.687964e-03 5.218686e-02 9.757077e-01 -9.249525e-02 9.757077e-01 -9.249525e-02 8.425322e-03 5.219224e-02
1.180000e+10 8.766264e-03 5.265559e-02 9.755730e-01 -9.320444e-02 9.755730e-01 -9.320444e-02 8.500403e-03 5.266189e-02
1.190000e+10 8.845496e-03 5.312411e-02 9.754382e-01 -9.391346e-02 9.754382e-01 -9.391346e-02 8.576400e-03 5.313133e-02
1.200000e+10 8.925640e-03 5.359241e-02 9.753031e-01 -9.462234e-02 9.753031e-01 -9.462234e-02 8.653294e-03 5.360057e-02
1.210000e+10 9.006678e-03 5.406050e-02 9.751679e-01 -9.533106e-02 9.751679e-01 -9.533106e-02 8.731068e-03 5.406960e-02
1.220000e+10 9.088593e-03 5.452835e-02 9.750323e-01 -9.603964e-02 9.750323e-01 -9.603964e-02 8.809704e-03 5.453842e-02
1.230000e+10 9.171363e-03 5.499598e-02 9.748965e-01 -9.674807e-02 9.748965e-01 -9.674807e-02 8.889182e-03 5.500702e-02
1.240000e+10 9.254972e-03 5.546337e-02 9.747604e-01 -9.745637e-02 9.747604e-01 -9.745637e-02 8.969483e-03 5.547540e-02
1.250000e+10 9.339398e-03 5.593053e-02 9.746239e-01 -9.816454e-02 9.746239e-01 -9.816454e-02 9.050589e-03 5.594356e-02
1.260000e+10 9.424624e-03 5.639745e-02 9.744871e-01 -9.887257e-02 9.744871e-01 -9.887257e-02 9.132479e-03 5.641149e-02
1.270000e+10 9.510633e-03 5.686412e-02 9.743499e-01 -9.958049e-02 9.743499e-01 -9.958049e-02 9.215140e-03 5.687919e-02
1.280000e+10 9.597423e-03 5.733054e-02 9.742123e-01 -1.002883e-01 9.742123e-01 -1.002883e-01 9.298569e-03 5.734665e-02
1.290000e+10 9.684995e-03 5.779671e-02 9.740744e-01 -1.009960e-01 9.740744e-01 -1.009960e-01 9.382766e-03 5.781388e-02
1.300000e+10 9.773348e-03 5.826262e-02 9.739361e-01 -1.017035e-01 9.739361e-01 -1.017035e-01 9.467732e-03 5.828085e-02
1.310000e+10 9.862482e-03 5.872827e-02 9.737974e-01 -1.024110e-01 9.737974e-01 -1.024110e-01 9.553466e-03 5.874758e-02
1.320000e+10 9.952398e-03 5.919365e-02 9.736583e-01 -1.031184e-01 9.736583e-01 -1.031184e-01 9.639968e-03 5.921406e-02
1.330000e+10 1.004309e-02 5.965876e-02 9.735188e-01 -1.038256e-01 9.735188e-01 -1.038256e-01 9.727239e-03 5.968028e-02
1.340000e+10 1.013457e-02 6.012360e-02 9.733789e-01 -1.045328e-01 9.733789e-01 -1.045328e-01 9.815278e-03 6.014623e-02
1.350000e+10 1.022683e-02 6.058816e-02 9.732386e-01 -1.052399e-01 9.732386e-01 -1.052399e-01 9.904086e-03 6.061193e-02
1.360000e+10 1.031987e-02 6.105244e-02 9.730979e-01 -1.059469e-01 9.730979e-01 -1.059469e-01 9.993661e-03 6.107735e-02
1.370000e+10 1.041369e-02 6.151644e-02 9.729568e-01 -1.066538e-01 9.729568e-01 -1.066538e-01 1.008400e-02 6.154250e-02
1.380000e+10 1.050829e-02 6.198015e-02 9.728153e-01 -1.073606e-01 9.728153e-01 -1.073606e-01 1.017512e-02 6.200738e-02
1.390000e+10 1.060367e-02 6.244357e-02 9.726734e-01 -1.080674e-01 9.726734e-01 -1.080674e-01 1.026700e-02 6.247197e-02
1.400000e+10 1.069983e-02 6.290669e-02 9.725310e-01 -1.087741e-01 9.725310e-01 -1.087741e-01 1.035964e-02 6.293629e-02
1.410000e+10 1.079677e-02 6.336952e-02 9.723883e-01 -1.094807e-01 9.723883e-01 -1.094807e-01 1.045306e-02 6.340031e-02
1.420000e+10 1.089449e-02 6.383205e-02 9.722451e-01 -1.101872e-01 9.722451e-01 -1.101872e-01 1.054724e-02 6.386405e-02
1.430000e+10 1.099299e-02 6.429428e-02 9.721016e-01 -1.108937e-01 9.721016e-01 -1.108937e-01 1.064219e-02 6.432750e-02
1.440000e+10 1.109227e-02 6.475620e-02 9.719575e-01 -1.116001e-01 9.719575e-01 -1.116001e-01 1.073790e-02 6.479065e-02
1.450000e+10 1.119233e-02 6.521782e-02 9.718131e-01 -1.123065e-01 9.718131e-01 -1.123065e-01 1.083438e-02 6.525350e-02
1.460000e+10 1.129317e-02 6.567913e-02 9.716683e-01 -1.130128e-01 9.716683e-01 -1.130128e-01 1.093163e-02 6.571605e-02
1.470000e+10 1.139478e-02 6.614012e-02 9.715230e-01 -1.137190e-01 9.715230e-01 -1.137190e-01 1.102964e-02 6.617829e-02
1.480000e+10 1.149717e-02 6.660080e-02 9.713773e-01 -1.144252e-01 9.713773e-01 -1.144252e-01 1.112842e-02 6.664023e-02
1.490000e+10 1.160034e-02 6.706116e-02 9.712311e-01 -1.151313e-01 9.712311e-01 -1.151313e-01 1.122796e-02 6.710186e-02
1.500000e+10 1.170429e-02 6.752120e-02 9.710846e-01 -1.158374e-01 9.710846e-01 -1.158374e-01 1.132827e-02 6.756318e-02
1.510000e+10 1.180901e-02 6.798092e-02 9.709376e-01 -1.165434e-01 9.709376e-01 -1.165434e-01 1.142934e-02 6.802419e-02
1.520000e+10 1.191452e-02 6.844031e-02 9.707901e-01 -1.172494e-01 9.707901e-01 -1.172494e-01 1.153117e-02 6.848488e-02
1.530000e+10 1.202079e-02 6.889939e-02 9.706422e-01 -1.179553e-01 9.706422e-01 -1.179553e-01 1.163377e-02 6.894525e-02
1.540000e+10 1.212785e-02 6.935813e-02 9.704939e-01 -1.186612e-01 9.704939e-01 -1.186612e-01 1.173713e-02 6.940530e-02
1.550000e+10 1.223568e-02 6.981655e-02 9.703452e-01 -1.193671e-01 9.703452e-01 -1.193671e-01 1.184125e-02 6.986503e-02
1.560000e+10 1.234429e-02 7.027463e-02 9.701959e-01 -1.200729e-01 9.701959e-01 -1.200729e-01 1.194614e-02 7.032443e-02
1.570000e+10 1.245367e-02 7.073239e-02 9.700463e-01 -1.207787e-01 9.700463e-01 -1.207787e-01 1.205178e-02 7.078351e-02
1.580000e+10 1.256383e-02 7.118981e-02 9.698962e-01 -1.214844e-01 9.698962e-01 -1.214844e-01 1.215819e-02 7.124226e-02
1.590000e+10 1.267476e-02 7.164690e-02 9.697456e-01 -1.221901e-01 9.697456e-01 -1.221901e-01 1.226535e-02 7.170069e-02
1.600000e+10 1.278647e-02 7.210365e-02 9.695947e-01 -1.228958e-01 9.695947e-01 -1.228958e-01 1.237328e-02 7.215878e-02
1.610000e+10 1.289895e-02 7.256006e-02 9.694432e-01 -1.236014e-01 9.694432e-01 -1.236014e-01 1.248196e-02 7.261654e-02
1.620000e+10 1.301220e-02 7.301614e-02 9.692913e-01 -1.243070e-01 9.692913e-01 -1.243070e-01 1.259141e-02 7.307397e-02
1.630000e+10 1.312623e-02 7.347188e-02 9.691390e-01 -1.250126e-01 9.691390e-01 -1.250126e-01 1.270161e-02 7.353106e-02
1.640000e+10 1.324104e-02 7.392727e-02 9.689861e-01 -1.257181e-01 9.689861e-01 -1.257181e-01 1.281257e-02 7.398782e-02
1.650000e+10 1.335661e-02 7.438233e-02 9.688329e-01 -1.264236e-01 9.688329e-01 -1.264236e-01 1.292428e-02 7.444424e-02
1.660000e+10 1.347296e-02 7.483704e-02 9.686792e-01 -1.271291e-01 9.686792e-01 -1.271291e-01 1.303676e-02 7.490032e-02
1.670000e+10 1.359009e-02 7.529141e-02 9.685250e-01 -1.278346e-01 9.685250e-01 -1.278346e-01 1.314999e-02 7.535607e-02
1.680000e+10 1.370798e-02 7.574544e-02 9.683703e-01 -1.285400e-01 9.683703e-01 -1.285400e-01 1.326397e-02 7.581148e-02
1.690000e+10 1.382665e-02 7.619912e-02 9.682152e-01 -1.292454e-01 9.682152e-01 -1.292454e-01 1.337871e-02 7.626654e-02
1.700000e+10 1.394609e-02 7.665246e-02 9.680596e-01 -1.299507e-01 9.680596e-01 -1.299507e-01 1.349421e-02 7.672127e-02
1.710000e+10 1.406630e-02 7.710546e-02 9.679036e-01 -1.306561e-01 9.679036e-01 -1.306561e-01 1.361046e-02 7.717565e-02
1.720000e+10 1.418728e-02 7.755810e-02 9.677471e-01 -1.313614e-01 9.677471e-01 -1.313614e-01 1.372746e-02 7.762969e-02
1.730000e+10 1.430904e-02 7.801041e-02 9.675901e-01 -1.320667e-01 9.675901e-01 -1.320667e-01 1.384521e-02 7.808339e-02
1.740000e+10 1.443156e-02 7.846236e-02 9.674327e-01 -1.327719e-01 9.674327e-01 -1.327719e-01 1.396372e-02 7.853675e-02
1.750000e+10 1.455486e-02 7.891397e-02 9.672748e-01 -1.334772e-01 9.672748e-01 -1.334772e-01 1.408298e-02 7.898976e-02
1.760000e+10 1.467892e-02 7.936523e-02 9.671164e-01 -1.341824e-01 9.671164e-01 -1.341824e-01 1.420299e-02 7.944244e-02
1.770000e+10 1.480376e-02 7.981615e-02 9.669575e-01 -1.348875e-01 9.669575e-01 -1.348875e-01 1.432376e-02 7.989476e-02
1.780000e+10 1.492937e-02 8.026672e-02 9.667982e-01 -1.355927e-01 9.667982e-01 -1.355927e-01 1.444527e-02 8.034675e-02
1.790000e+10 1.505574e-02 8.071694e-02 9.666383e-01 -1.362978e-01 9.666383e-01 -1.362978e-01 1.456753e-02 8.079839e-02
1.800000e+10 1.518288e-02 8.116681e-02 9.664780e-01 -1.370029e-01 9.664780e-01 -1.370029e-01 1.469054e-02 8.124968e-02
1.810000e+10 1.531079e-02 8.161634e-02 9.663172e-01 -1.377080e-01 9.663172e-01 -1.377080e-01 1.481430e-02 8.170063e-02
1.820000e+10 1.543947e-02 8.206552e-02 9.661560e-01 -1.384130e-01 9.661560e-01 -1.384130e-01 1.493881e-02 8.215124e-02
1.830000e+10 1.556892e-02 8.251435e-02 9.659942e-01 -1.391180e-01 9.659942e-01 -1.391180e-01 1.506407e-02 8.260151e-02
1.840000e+10 1.569914e-02 8.296283e-02 9.658320e-01 -1.398230e-01 9.658320e-01 -1.398230e-01 1.519007e-02 8.305143e-02
1.850000e+10 1.583012e-02 8.341097e-02 9.656693e-01 -1.405279e-01 9.656693e-01 -1.405279e-01 1.531682e-02 8.350101e-02
1.860000e+10 1.596187e-02 8.385877e-02 9.655061e-01 -1.412329e-01 9.655061e-01 -1.412329e-01 1.544431e-02 8.395025e-02
1.870000e+10 1.609438e-02 8.430621e-02 9.653424e-01 -1.419377e-01 9.653424e-01 -1.419377e-01 1.557255e-02 8.439914e-02
1.880000e+10 1.622766e-02 8.475332e-02 9.651782e-01 -1.426426e-01 9.651782e-01 -1.426426e-01 1.570153e-02 8.484770e-02
1.890000e+10 1.636170e-02 8.520008e-02 9.650135e-01 -1.433474e-01 9.650135e-01 -1.433474e-01 1.583126e-02 8.529591e-02
1.900000e+10 1.649651e-02 8.564649e-02 9.648483e-01 -1.440522e-01 9.648483e-01 -1.440522e-01 1.596173e-02 8.574378e-02
1.910000e+10 1.663208e-02 8.609256e-02 9.646826e-01 -1.447569e-01 9.646826e-01 -1.447569e-01 1.609294e-02 8.619131e-02
1.920000e+10 1.676841e-02 8.653829e-02 9.645164e-01 -1.454616e-01 9.645164e-01 -1.454616e-01 1.622489e-02 8.663851e-02
1.930000e+10 1.690551e-02 8.698367e-02 9.643497e-01 -1.461663e-01 9.643497e-01 -1.461663e-01 1.635758e-02 8.708536e-02
1.940000e+10 1.704337e-02 8.742871e-02 9.641826e-01 -1.468709e-01 9.641826e-01 -1.468709e-01 1.649101e-02 8.753188e-02
1.950000e+10 1.718199e-02 8.787342e-02 9.640149e-01 -1.475754e-01 9.640149e-01 -1.475754e-01 1.662519e-02 8.797806e-02
1.960000e+10 1.732137e-02 8.831778e-02 9.638467e-01 -1.482800e-01 9.638467e-01 -1.482800e-01 1.676009e-02 8.842391e-02
1.970000e+10 1.746150e-02 8.876180e-02 9.636780e-01 -1.489844e-01 9.636780e-01 -1.489844e-01 1.689574e-02 8.886942e-02
1.980000e+10 1.760240e-02 8.920549e-02 9.635087e-01 -1.496889e-01 9.635087e-01 -1.496889e-01 1.703212e-02 8.931460e-02
1.990000e+10 1.774406e-02 8.964884e-02 9.633390e-01 -1.503933e-01 9.633390e-01 -1.503933e-01 1.716924e-02 8.975944e-02
2.000000e+10 1.788647e-02 9.009185e-02 9.631688e-01 -1.510976e-01 9.631688e-01 -1.510976e-01 1.730709e-02 9.020395e-02
2.010000e+10 1.802963e-02 9.053453e-02 9.629980e-01 -1.518018e-01 9.629980e-01 -1.518018e-01 1.744568e-02 9.064814e-02
2.020000e+10 1.817356e-02 9.097687e-02 9.628268e-01 -1.525061e-01 9.628268e-01 -1.525061e-01 1.758500e-02 9.109199e-02
2.030000e+10 1.831823e-02 9.141889e-02 9.626550e-01 -1.532102e-01 9.626550e-01 -1.532102e-01 1.772505e-02 9.153552e-02
2.040000e+10 1.846366e-02 9.186057e-02 9.624827e-01 -1.539143e-01 9.624827e-01 -1.539143e-01 1.786583e-02 9.197872e-02
2.050000e+10 1.860984e-02 9.230192e-02 9.623098e-01 -1.546183e-01 9.623098e-01 -1.546183e-01 1.800734e-02 9.242160e-02
2.060000e+10 1.875678e-02 9.274294e-02 9.621365e-01 -1.553223e-01 9.621365e-01 -1.553223e-01 1.814958e-02 9.286415e-02
2.070000e+10 1.890446e-02 9.318364e-02 9.619626e-01 -1.560262e-01 9.619626e-01 -1.560262e-01 1.829254e-02 9.330638e-02
2.080000e+10 1.905289e-02 9.362401e-02 9.617882e-01 -1.567300e-01 9.617882e-01 -1.567300e-01 1.843623e-02 9.374829e-02
2.090000e+10 1.920207e-02 9.406406e-02 9.616132e-01 -1.574337e-01 9.616132e-01 -1.574337e-01 1.858065e-02 9.418988e-02
2.100000e+10 1.935199e-02 9.450379e-02 9.614378e-01 -1.581374e-01 9.614378e-01 -1.581374e-01 1.872579e-02 9.463116e-02
2.110000e+10 1.950266e-02 9.494319e-02 9.612617e-01 -1.588410e-01 9.612617e-01 -1.588410e-01 1.887165e-02 9.507212e-02
2.120000e+10 1.965407e-02 9.538228e-02 9.610852e-01 -1.595445e-01 9.610852e-01 -1.595445e-01 1.901823e-02 9.551277e-02
2.130000e+10 1.980623e-02 9.582105e-02 9.609081e-01 -1.602479e-01 9.609081e-01 -1.602479e-01 1.916553e-02 9.595311e-02
2.140000e+10 1.995912e-02 9.625950e-02 9.607305e-01 -1.609512e-01 9.607305e-01 -1.609512e-01 1.931355e-02 9.639313e-02
2.150000e+10 2.011276e-02 9.669764e-02 9.605523e-01 -1.616544e-01 9.605523e-01 -1.616544e-01 1.946229e-02 9.683285e-02
2.160000e+10 2.026713e-02 9.713547e-02 9.603736e-01 -1.623576e-01 9.603736e-01 -1.623576e-01 1.961174e-02 9.727227e-02
2.170000e+10 2.042224e-02 9.757299e-02 9.601943e-01 -1.630606e-01 9.601943e-01 -1.630606e-01 1.976190e-02 9.771138e-02
2.180000e+10 2.057808e-02 9.801021e-02 9.600145e-01 -1.637635e-01 9.600145e-01 -1.637635e-01 1.991278e-02 9.815019e-02
2.190000e+10 2.073466e-02 9.844712e-02 9.598342e-01 -1.644664e-01 9.598342e-01 -1.644664e-01 2.006437e-02 9.858871e-02
2.200000e+10 2.089196e-02 9.888372e-02 9.596533e-01 -1.651691e-01 9.596533e-01 -1.651691e-01 2.021667e-02 9.902692e-02
2.210000e+10 2.105000e-02 9.932003e-02 9.594718e-01 -1.658717e-01 9.594718e-01 -1.658717e-01 2.036967e-02 9.946485e-02
2.220000e+10 2.120876e-02 9.975603e-02 9.592898e-01 -1.665742e-01 9.592898e-01 -1.665742e-01 2.052338e-02 9.990248e-02
2.230000e+10 2.136825e-02 1.001917e-01 9.591072e-01 -1.672765e-01 9.591072e-01 -1.672765e-01 2.067779e-02 1.003398e-01
2.240000e+10 2.152847e-02 1.006272e-01 9.589240e-01 -1.679788e-01 9.589240e-01 -1.679788e-01 2.083291e-02 1.007769e-01
2.250000e+10 2.168940e-02 1.010623e-01 9.587403e-01 -1.686809e-01 9.587403e-01 -1.686809e-01 2.098873e-02 1.012136e-01
2.260000e+10 2.185106e-02 1.014971e-01 9.585560e-01 -1.693829e-01 9.585560e-01 -1.693829e-01 2.114524e-02 1.016501e-01
2.270000e+10 2.201343e-02 1.019317e-01 9.583711e-01 -1.700847e-01 9.583711e-01 -1.700847e-01 2.130245e-02 1.020863e-01
2.280000e+10 2.217652e-02 1.023660e-01 9.581857e-01 -1.707864e-01 9.581857e-01 -1.707864e-01 2.146036e-02 1.025223e-01
2.290000e+10 2.234032e-02 1.027999e-01 9.579997e-01 -1.714880e-01 9.579997e-01 -1.714880e-01 2.161896e-02 1.029579e-01
2.300000e+10 2.250484e-02 1.032337e-01 9.578131e-01 -1.721894e-01 9.578131e-01 -1.721894e-01 2.177824e-02 1.033933e-01
2.310000e+10 2.267006e-02 1.036671e-01 9.576259e-01 -1.728907e-01 9.576259e-01 -1.728907e-01 2.193822e-02 1.038285e-01
2.320000e+10 2.283599e-02 1.041003e-01 9.574382e-01 -1.735918e-01 9.574382e-01 -1.735918e-01 2.209889e-02 1.042633e-01
2.330000e+10 2.300263e-02 1.045331e-01 9.572498e-01 -1.742927e-01 9.572498e-01 -1.742927e-01 2.226023e-02 1.046979e-01
2.340000e+10 2.316997e-02 1.049658e-01 9.570609e-01 -1.749935e-01 9.570609e-01 -1.749935e-01 2.242226e-02 1.051323e-01
2.350000e+10 2.333800e-02 1.053981e-01 9.568714e-01 -1.756941e-01 9.568714e-01 -1.756941e-01 2.258497e-02 1.055664e-01
2.360000e+10 2.350674e-02 1.058303e-01 9.566813e-01 -1.763945e-01 9.566813e-01 -1.763945e-01 2.274836e-02 1.060002e-01
2.370000e+10 2.367617e-02 1.062621e-01 9.564906e-01 -1.770948e-01 9.564906e-01 -1.770948e-01 2.291242e-02 1.064338e-01
2.380000e+10 2.384629e-02 1.066937e-01 9.562993e-01 -1.777948e-01 9.562993e-01 -1.777948e-01 2.307715e-02 1.068671e-01
2.390000e+10 2.401710e-02 1.071250e-01 9.561073e-01 -1.784947e-01 9.561073e-01 -1.784947e-01 2.324256e-02 1.073002e-01
2.400000e+10 2.418860e-02 1.075561e-01 9.559148e-01 -1.791944e-01 9.559148e-01 -1.791944e-01 2.340863e-02 1.077331e-01
2.410000e+10 2.436078e-02 1.079870e-01 9.557217e-01 -1.798939e-01 9.557217e-01 -1.798939e-01 2.357537e-02 1.081657e-01
2.420000e+10 2.453365e-02 1.084176e-01 9.555279e-01 -1.805931e-01 9.555279e-01 -1.805931e-01 2.374277e-02 1.085981e-01
2.430000e+10 2.470719e-02 1.088480e-01 9.553336e-01 -1.812922e-01 9.553336e-01 -1.812922e-01 2.391083e-02 1.090303e-01
2.440000e+10 2.488141e-02 1.092782e-01 9.551386e-01 -1.819910e-01 9.551386e-01 -1.819910e-01 2.407954e-02 1.094622e-01
2.450000e+10 2.505630e-02 1.097081e-01 9.549430e-01 -1.826897e-01 9.549430e-01 -1.826897e-01 2.424892e-02 1.098940e-01
2.460000e+10 2.523186e-02 1.101378e-01 9.547468e-01 -1.833881e-01 9.547468e-01 -1.833881e-01 2.441894e-02 1.103255e-01
2.470000e+10 2.540809e-02 1.105672e-01 9.545500e-01 -1.840862e-01 9.545500e-01 -1.840862e-01 2.458961e-02 1.107568e-01
2.480000e+10 2.558498e-02 1.109965e-01 9.543525e-01 -1.847842e-01 9.543525e-01 -1.847842e-01 2.476093e-02 1.111879e-01
2.490000e+10 2.576253e-02 1.114255e-01 9.541544e-01 -1.854819e-01 9.541544e-01 -1.854819e-01 2.493289e-02 1.116187e-01
2.500000e+10 2.594074e-02 1.118544e-01 9.539556e-01 -1.861793e-01 9.539556e-01 -1.861793e-01 2.510549e-02 1.120494e-01